9
Properties=species:S:1:pos:R:3:forces:R:3 rxn000000/p000000.log=T energy=-8626.960752863744 pbc="F F F"
C       -1.01078000      -0.01141000      -0.06095000       0.08897107      -0.00422015       0.01371563
C        0.47798000       0.01914000       0.01390000      -0.49757786       0.34129573      -0.16645434
N        1.29738000      -0.99295000       0.46925000      -2.39181410      -3.50404660       1.27220370
O        0.69281000      -1.98447000       0.83375000       2.46120904       3.92276526      -1.43600228
N        1.74561000       1.97013000      -0.69764000      -1.99677404      -2.97282360       1.08022155
N        1.16420000       1.07627000      -0.37161000       2.04022303       2.19539836      -0.76659292
H       -1.40205000       0.91336000      -0.48215000       0.06046173      -0.11093756       0.05040789
H       -1.33267000      -0.84991000      -0.68032000       0.10947958       0.13678305       0.13503369
H       -1.43288000      -0.15536000       0.93493000       0.12582155      -0.00421450      -0.18253291
13
Properties=species:S:1:pos:R:3:forces:R:3 rxn000002/p000002.log=T energy=-7327.584775468543 pbc="F F F"
C        0.73870000       0.16691000       0.25679000      -0.09206867       0.24775204      -0.10362503
O        1.38767000      -0.94916000       0.89010000       0.20300402      -0.02875242       0.10770351
C        0.30953000      -1.82951000       0.54129000      -0.18736096      -0.20422968      -0.04665770
C       -0.44475000      -0.70244000      -0.17514000      -0.11037810       0.01775057      -0.07241890
O       -0.99140000       2.32390000      -1.26293000      -0.00189906      -0.04020833       0.00860938
H        0.50632000       0.95991000       0.97226000       0.04083746      -0.18342801      -0.14862531
H        1.34320000       0.58494000      -0.55173000      -0.12992367      -0.11032200       0.17022274
H       -0.51298000       2.72486000      -1.98990000      -0.07075642       0.05295664       0.13059854
H        0.64934000      -2.65490000      -0.09135000      -0.06891367       0.19420035       0.12728914
H       -0.17935000      -2.24087000       1.42963000       0.09633215       0.11074148      -0.19197093
H       -0.55801000      -0.82356000      -1.24994000       0.04654781       0.01675057       0.21926732
H       -1.40493000      -0.42578000       0.25357000       0.20225130      -0.06190187      -0.06139044
H       -1.21194000       3.04614000      -0.67317000       0.07232781      -0.01130933      -0.13900233
6
Properties=species:S:1:pos:R:3:forces:R:3 rxn000007/p000007.log=T energy=-7561.399034475176 pbc="F F F"
O       -0.52876000      -1.23780000       0.01935000      -0.03086139       0.00714733       0.00758775
C        1.62874000       1.34529000       0.33856000      -1.20775328      -1.83461960      -0.24568690
N        2.25416000       2.29439000       0.46696000       1.05089835       1.59401608       0.21475942
N       -2.77756000      -1.54794000       0.33684000      -3.50060121      -0.49377436       0.49064386
N       -1.68635000      -1.39485000       0.18345000       3.54150632       0.49811997      -0.49626074
H        1.03931000       0.45968000       0.22026000       0.14681121       0.22911059       0.02895660
16
Properties=species:S:1:pos:R:3:forces:R:3 rxn000008/p000008.log=T energy=-6373.559971427479 pbc="F F F"
C        0.82765000      -0.70237000      -0.87628000      -0.01069891       0.07804403       0.03504058
C        0.50666000      -0.30112000       0.57692000       0.01222674      -0.00785713       0.00080205
C        1.04142000       1.09008000       0.90510000      -0.01736704       0.03830714      -0.04032071
C       -0.28138000      -0.36164000      -1.78927000       0.00174065      -0.00125112       0.24174553
C       -1.39203000      -0.02006000      -0.87415000       0.01893599      -0.01668227      -0.00687279
C       -1.02670000      -0.37087000       0.57743000       0.00949757      -0.02403684       0.01417476
H        0.73505000      -1.80338000      -0.99193000      -0.05700486       0.14885891       0.00729857
H        1.82784000      -0.46599000      -1.24459000      -0.17681187      -0.03648937       0.07816796
H        0.93317000      -1.01432000       1.28627000      -0.07839575       0.12454423      -0.13297506
H        2.12970000       1.12138000       0.81880000      -0.20448760      -0.03075047       0.00376420
H        0.77874000       1.38203000       1.92377000       0.03059164      -0.07237373      -0.19144534
H        0.63957000       1.84771000       0.22650000       0.04336655      -0.17184166       0.10735821
H       -2.37954000      -0.32474000      -1.22372000       0.18267428       0.05638317       0.06871116
H       -1.37498000       1.07713000      -1.02749000       0.06483894      -0.15863568       0.02086954
H       -1.36161000      -1.38692000       0.80378000       0.07782633       0.16765362      -0.07346001
H       -1.48470000       0.29344000       1.31259000       0.10306733      -0.09387282      -0.13285864
