9
Properties=species:S:1:pos:R:3:forces:R:3 energy=-8628.570627678653 pbc="F F F"
C       -1.30871000       0.00680000       0.03184000       0.02923139      -0.03963827       0.02179826
C        0.17155000      -0.03442000       0.02096000       3.04992901      -4.58378809       3.30486279
N        0.90545000      -0.90009000       0.63952000      -2.63147531       4.18290403      -3.02673460
O        2.16825000      -0.54833000       0.34367000      -1.00915947       2.25567604      -1.63023008
N        2.14993000       0.54494000      -0.46310000      -7.27727376      -0.73071743       0.74523674
N        0.96133000       0.86549000      -0.66599000       7.33727239      -1.12087806       0.62145283
H       -1.65584000       0.95046000       0.45304000       0.17175070      -0.16221658      -0.10296232
H       -1.69336000      -0.06800000      -0.98539000       0.17485318       0.03489054       0.18162365
H       -1.69859000      -0.81685000       0.62546000       0.15487188       0.16376783      -0.11504728
13
Properties=species:S:1:pos:R:3:forces:R:3 rxn000002/r000002.log=T energy=-7328.150431370011 pbc="F F F"
C        1.78212000       0.60742000       0.46081000       0.28513392      -0.07146187      -0.04461539
O        0.38248000       0.51474000       0.42307000      -0.19789442       0.07496596       0.03373505
C       -0.07994000      -0.59802000      -0.30716000       0.07319013      -0.17685315      -0.13024514
C       -1.58611000      -0.50197000      -0.37459000       0.07227015      -0.13243824       0.20123717
O       -2.00475000       0.66482000      -1.04450000       0.00878536       0.03512774      -0.03969051
H        2.03869000       1.48873000       1.04704000      -0.08049475      -0.19106898      -0.13082535
H        2.22784000      -0.27688000       0.93410000      -0.10954593       0.18632301      -0.10649371
H        2.20391000       0.71185000      -0.54710000      -0.11063363      -0.03055144       0.21617588
H        0.34241000      -0.58508000      -1.32206000      -0.10158243       0.01138072       0.20156854
H        0.22362000      -1.53535000       0.18163000      -0.07164318       0.18650875      -0.08427761
H       -1.98372000      -1.35298000      -0.93058000       0.10067016       0.19581054       0.09215533
H       -1.99543000      -0.53976000       0.64340000       0.12527072       0.00683484      -0.22330973
H       -1.55110000       1.40248000      -0.62795000       0.00647389      -0.09457788       0.01458550
6
Properties=species:S:1:pos:R:3:forces:R:3 rxn000007/r000007.log=T energy=-7561.863014374054 pbc="F F F"
O        0.74677000      -1.30131000      -0.09177000      -0.08763499      -0.45537359      -0.08338271
C        0.92318000      -0.13813000       0.12907000       0.27446224       0.46442524       0.06310777
N       -0.07628000       0.80425000       0.43612000      -0.23872426       0.05994137       0.04064866
N       -1.22242000       0.31506000       0.46423000       3.31675640       0.98210058      -0.17154803
N       -2.27453000      -0.03442000       0.51053000      -3.02574622      -0.97310563       0.13998414
H        1.90328000       0.35456000       0.12073000      -0.23911318      -0.07798797       0.01119017
16
Properties=species:S:1:pos:R:3:forces:R:3 rxn000008/r000008.log=T energy=-6376.53704025447 pbc="F F F"
C        0.91693000      -0.75472000      -0.68585000      -0.04066948      -0.01589409      -0.00037923
C        0.47610000      -0.58788000       0.78672000      -0.00904875      -0.01404264       0.03560946
C        0.82672000       0.90805000       0.60943000      -0.04135353      -0.00810136       0.01298944
C        0.29687000       0.65511000      -0.82069000      -0.02068526       0.03531358      -0.03525714
C       -1.18798000       0.37479000      -0.56425000       0.01684835       0.01485777      -0.02185444
C       -1.05148000      -0.57193000       0.66160000       0.02688976      -0.01292759       0.01909441
H        0.47664000      -1.56950000      -1.26562000       0.03876259       0.13983081       0.09837070
H        2.00090000      -0.74865000      -0.80200000      -0.17494576       0.04931751       0.05770488
H        0.90599000      -1.18778000       1.58738000      -0.07774029       0.09700502      -0.13321605
H        1.90105000       1.09198000       0.63214000      -0.16826137      -0.07902952      -0.04333581
H        0.30238000       1.63724000       1.23165000       0.05376739      -0.12864274      -0.10541645
H        0.54464000       1.31609000      -1.64987000      -0.04709109      -0.11465139       0.13454983
H       -1.66909000      -0.10708000      -1.41728000       0.11165027       0.05924037       0.15234430
H       -1.74595000       1.28415000      -0.33373000       0.12816118      -0.15279210      -0.01637851
H       -1.46066000      -1.56630000       0.47398000       0.09864988       0.17410316       0.00527063
H       -1.53306000      -0.17358000       1.55639000       0.10506613      -0.04358678      -0.16009603
