9
Properties=species:S:1:pos:R:3:forces:R:3 rxn000000/ts000000.log=T energy=-8626.330988473972 pbc="F F F"
C       -1.12328000       0.05576000       0.00872000      -0.05171852      -0.18667835      -0.27402832
C        0.36662000       0.03172000       0.04233000       2.64325693       4.22913207      -0.56203827
N        1.03923000      -1.03645000       0.85035000       2.35291725      -8.54730489      -7.07978639
O        1.32386000      -1.99280000       0.21073000      -2.27975787       8.36622602       6.31925378
N        1.83638000       1.77220000      -0.74643000      -2.13718483      -2.42190327       0.97940010
N        1.12813000       0.96543000      -0.37684000      -0.80047971      -1.51892250       0.59808782
H       -1.47110000       0.97338000      -0.46389000       0.08951714      -0.11023100       0.07756298
H       -1.52062000      -0.79176000      -0.55425000       0.06512533       0.17719538       0.12385680
H       -1.53655000       0.01828000       1.02053000       0.11832430       0.01248654      -0.18230851
13
Properties=species:S:1:pos:R:3:forces:R:3 rxn000002/ts000002.log=T energy=-7322.849951413376 pbc="F F F"
C        1.09642000       0.62762000       0.50425000       1.51587097      -1.38534543       1.56321749
O        0.90162000      -0.67147000       1.04684000       0.28900162       1.53280947       0.00124181
C        0.15020000      -1.30914000       0.07665000      -1.03101752      -0.77573034      -0.73296294
C       -0.98943000      -0.39323000      -0.21670000      -0.25687026      -1.35487994       0.95189833
O       -0.67191000       1.21098000      -1.45846000       1.25709060       1.39684216      -0.04148780
H        1.28138000       1.33161000       1.31658000      -0.34275321      -0.02816212      -0.23519918
H        1.94204000       0.62252000      -0.20129000      -0.64596134       0.07997961      -0.28724120
H        0.03384000       1.19466000      -0.67803000      -1.69609553       0.28715809      -1.62464459
H        0.73186000      -1.51768000      -0.83629000      -0.06686573       0.08780473       0.22319728
H       -0.23344000      -2.27459000       0.44649000       0.40953509       0.19234383       0.08443026
H       -1.71476000      -0.71480000      -0.95606000       0.27145563       0.14298539       0.18274288
H       -1.39955000       0.10096000       0.65415000       0.04610426      -0.23138510      -0.13890128
H       -1.32016000       1.90015000      -1.26826000       0.25050543       0.05557967       0.05370896
6
Properties=species:S:1:pos:R:3:forces:R:3 rxn000007/ts000007.log=T energy=-7559.628909950727 pbc="F F F"
O       -0.14081000      -1.19842000       0.05843000      -0.34187097      -1.07524492      -0.16112832
C        0.88740000       0.31044000       0.22186000       0.82928046      -0.71506095      -0.21703702
N        0.19949000       1.24035000       0.46671000      -0.20128562       1.18574791       0.23662356
N       -1.56697000       0.40902000       0.50634000      -1.10548408       0.34081142       0.18176776
N       -1.24345000      -0.67605000       0.27319000       1.02525932       0.13473563      -0.08506106
H        1.86339000      -0.09746000       0.04185000      -0.20589911       0.12901091       0.04483508
16
Properties=species:S:1:pos:R:3:forces:R:3 rxn000008/ts000008.log=T energy=-6372.9933848783985 pbc="F F F"
C        0.86843000      -0.77998000      -0.75672000      -0.01205388      -0.00198390       0.06202859
C        0.49844000      -0.49303000       0.69577000      -0.01109650      -0.01723331      -0.01246797
C        0.90814000       0.98180000       0.62330000      -0.06531861      -0.22366328       0.27720086
C        0.13707000       0.48750000      -1.25347000       0.15525264       0.29103635       0.34797333
C       -1.24930000       0.28451000      -0.65889000       0.02046108       0.03328511      -0.00349361
C       -1.02868000      -0.51313000       0.65423000       0.01916613      -0.04171951       0.04657265
H        0.44101000      -1.69033000      -1.18373000       0.02046846       0.15663990       0.06713052
H        1.94047000      -0.76087000      -0.95602000      -0.17447975       0.04311379       0.06378758
H        0.95094000      -1.06614000       1.51009000      -0.09030013       0.08210434      -0.10553699
H        1.98813000       1.13009000       0.64003000      -0.14657108      -0.03513976      -0.10010633
H        0.38744000       1.68703000       1.27148000       0.03237441      -0.08765268      -0.11666818
H        0.72558000       1.41751000      -0.55145000      -0.19743698      -0.23099983      -0.47839406
H       -1.80878000      -0.28816000      -1.40423000       0.13110789       0.06783503       0.10695092
H       -1.78761000       1.22147000      -0.51656000       0.11709418      -0.15303131       0.00545046
H       -1.41020000      -1.53522000       0.60551000       0.09886498       0.16958831      -0.01060339
H       -1.48128000      -0.03149000       1.52285000       0.10246716      -0.05217924      -0.14982438
